/*--------------------------------*- C++ -*----------------------------------*\
  =========                 |
  \\      /  F ield         | OpenFOAM: The Open Source CFD Toolbox
   \\    /   O peration     | Website:  https://openfoam.org
    \\  /    A nd           | Version:  6
     \\/     M anipulation  |
\*---------------------------------------------------------------------------*/
FoamFile
{
    version     2.0;
    format      ascii;
    class       volVectorField;
    location    "0";
    object      wallShearStress;
}
// * * * * * * * * * * * * * * * * * * * * * * * * * * * * * * * * * * * * * //

dimensions      [0 2 -2 0 0 0 0];

internalField   uniform (0 0 0);

boundaryField
{
    inlet
    {
        type            calculated;
        value           uniform (0 0 0);
    }
    outlet
    {
        type            calculated;
        value           uniform (0 0 0);
    }
    lowerWallStartup
    {
        type            symmetryPlane;
    }
    upperWallStartup
    {
        type            symmetryPlane;
    }
    upperWall
    {
        type            calculated;
        value           nonuniform List<vector> 
218
(
(-53.04 0 0)
(-53.04 0 0)
(-53.04 0 0)
(-53.04 0 0)
(-53.04 0 0)
(-53.04 0 0)
(-53.04 0 0)
(-53.04 0 0)
(-53.04 0 0)
(-53.04 0 0)
(-53.04 0 0)
(-53.04 0 0)
(-53.04 0 0)
(-53.04 0 0)
(-53.04 0 0)
(-53.04 0 0)
(-53.04 0 0)
(-53.04 0 0)
(-53.04 0 0)
(-53.04 0 0)
(-53.04 0 0)
(-53.04 0 0)
(-53.04 0 0)
(-53.04 0 0)
(-53.04 0 0)
(-53.04 0 0)
(-53.04 0 0)
(-53.04 0 0)
(-53.04 0 0)
(-53.04 0 0)
(-53.04 0 0)
(-53.04 0 0)
(-53.04 0 0)
(-53.04 0 0)
(-53.04 0 0)
(-53.04 0 0)
(-53.04 0 0)
(-53.04 0 0)
(-53.04 0 0)
(-53.04 0 0)
(-53.04 0 0)
(-53.04 0 0)
(-53.04 0 0)
(-53.04 0 0)
(-53.04 0 0)
(-53.04 0 0)
(-53.04 0 0)
(-53.04 0 0)
(-53.04 0 0)
(-53.04 0 0)
(-53.04 0 0)
(-53.04 0 0)
(-53.04 0 0)
(-53.04 0 0)
(-53.04 0 0)
(-53.04 0 0)
(-53.04 0 0)
(-53.04 0 0)
(-53.04 0 0)
(-53.04 0 0)
(-53.04 0 0)
(-53.04 0 0)
(-53.04 0 0)
(-53.04 0 0)
(-53.04 0 0)
(-53.04 0 0)
(-53.04 0 0)
(-53.04 0 0)
(-53.04 0 0)
(-53.04 0 0)
(-53.04 0 0)
(-53.04 0 0)
(-53.04 0 0)
(-53.04 0 0)
(-53.04 0 0)
(-53.04 0 0)
(-53.04 0 0)
(-53.04 0 0)
(-53.04 0 0)
(-53.04 0 0)
(-53.04 0 0)
(-53.04 0 0)
(-53.04 0 0)
(-53.04 0 0)
(-53.04 0 0)
(-53.04 0 0)
(-53.04 0 0)
(-53.04 0 0)
(-53.04 0 0)
(-53.04 0 0)
(-53.04 0 0)
(-54.0731 0 0)
(-55.1616 0 0)
(-55.1616 0 0)
(-55.1616 0 0)
(-55.1616 0 0)
(-55.1616 0 0)
(-55.1616 0 0)
(-55.1616 0 0)
(-55.1616 0 0)
(-55.1616 0 0)
(-55.1616 0 0)
(-55.1616 0 0)
(-55.1616 0 0)
(-55.1616 0 0)
(-55.1616 0 0)
(-55.1616 0 0)
(-55.1616 0 0)
(-56.2795 0 0)
(-57.46 0 0)
(-57.46 0 0)
(-57.46 0 0)
(-57.46 0 0)
(-57.46 0 0)
(-57.46 0 0)
(-57.46 0 0)
(-57.46 0 0)
(-57.46 0 0)
(-57.46 0 0)
(-57.46 0 0)
(-57.46 0 0)
(-57.46 0 0)
(-57.46 0 0)
(-57.46 0 0)
(-57.46 0 0)
(-58.6737 5.63557e-17 0)
(-59.9583 0 0)
(-59.9583 0 0)
(-59.9583 0 0)
(-59.9583 0 0)
(-59.9583 0 0)
(-59.9583 0 0)
(-59.9583 0 0)
(-59.9583 0 0)
(-59.9583 0 0)
(-59.9583 0 0)
(-59.9583 0 0)
(-59.9583 0 0)
(-59.9583 0 0)
(-59.9583 0 0)
(-59.9583 0 0)
(-59.9583 0 0)
(-61.2806 0 0)
(-62.6836 0 0)
(-62.6836 0 0)
(-62.6836 0 0)
(-62.6836 0 0)
(-62.6836 0 0)
(-62.6836 0 0)
(-62.6836 0 0)
(-62.6836 0 0)
(-62.6836 0 0)
(-62.6836 0 0)
(-62.6836 0 0)
(-62.6836 0 0)
(-62.6836 0 0)
(-62.6836 0 0)
(-62.6836 0 0)
(-62.6836 0 0)
(-64.1298 0 0)
(-65.6686 0 0)
(-65.6686 0 0)
(-65.6686 0 0)
(-65.6686 0 0)
(-65.6686 0 0)
(-65.6686 0 0)
(-65.6686 0 0)
(-65.6686 0 0)
(-65.6686 0 0)
(-65.6686 0 0)
(-65.6686 0 0)
(-65.6686 0 0)
(-65.6686 0 0)
(-65.6686 0 0)
(-65.6686 0 0)
(-65.6686 0 0)
(-67.2569 6.46091e-17 0)
(-68.952 0 0)
(-68.952 0 0)
(-68.952 0 0)
(-68.952 0 0)
(-68.952 0 0)
(-68.952 0 0)
(-68.952 0 0)
(-68.952 0 0)
(-68.952 0 0)
(-68.952 0 0)
(-68.952 0 0)
(-68.952 0 0)
(-68.952 0 0)
(-68.952 0 0)
(-68.952 0 0)
(-68.952 0 0)
(-68.952 0 0)
(-68.952 0 0)
(-68.952 0 0)
(-70.7045 -1.82837e-17 0)
(-72.5811 0 0)
(-72.5811 0 0)
(-72.5811 0 0)
(-72.5811 0 0)
(-72.5811 0 0)
(-72.5811 0 0)
(-74.5246 7.3901e-18 0)
(-76.6133 0 0)
(-76.6133 0 0)
(-78.7808 -5.18019e-18 0)
(-81.12 0 0)
(-81.12 0 0)
(-83.5526 3.64347e-18 0)
(-86.19 0 0)
(-88.9395 -2.94926e-18 0)
(-95.0685 5.49848e-18 0)
(-102.104 -1.28747e-18 0)
(-110.264 0 0)
(-119.841 1.14929e-18 0)
(-131.238 -1.09768e-18 0)
(-145.028 0 0)
)
;
    }
    lowerWall
    {
        type            calculated;
        value           nonuniform List<vector> 
266
(
(-52.0392 0 0)
(-52.0392 0 0)
(-52.0392 0 0)
(-52.0392 0 0)
(-52.0392 0 0)
(-52.0392 0 0)
(-52.0392 0 0)
(-52.0392 0 0)
(-52.0392 0 0)
(-52.0392 0 0)
(-52.0392 0 0)
(-52.0392 0 0)
(-52.0392 0 0)
(-52.0392 0 0)
(-52.0392 0 0)
(-52.0392 0 0)
(-52.0392 0 0)
(-52.0392 0 0)
(-52.0392 0 0)
(-52.0392 0 0)
(-52.0392 0 0)
(-52.0392 0 0)
(-52.0392 0 0)
(-52.0392 0 0)
(-52.0392 0 0)
(-52.0392 0 0)
(-52.0392 0 0)
(-52.0392 0 0)
(-52.0392 0 0)
(-52.0392 0 0)
(-52.0392 0 0)
(-52.0392 0 0)
(-52.0392 0 0)
(-52.0392 0 0)
(-52.0392 0 0)
(-52.0392 0 0)
(-52.0392 0 0)
(-52.0392 0 0)
(-52.0392 0 0)
(-52.0392 0 0)
(-52.0392 0 0)
(-52.0392 0 0)
(-52.0392 0 0)
(-52.0392 0 0)
(-52.0392 0 0)
(-52.0392 0 0)
(-52.0392 0 0)
(-52.0392 0 0)
(-52.0392 0 0)
(-52.0392 0 0)
(-52.0392 0 0)
(-52.0392 0 0)
(-52.0392 0 0)
(-52.0392 0 0)
(-52.0392 0 0)
(-52.0392 0 0)
(-52.0392 0 0)
(-52.0392 0 0)
(-52.0392 0 0)
(-52.0392 0 0)
(-52.0392 0 0)
(-52.0392 0 0)
(-52.0392 0 0)
(-52.0392 0 0)
(-52.0392 0 0)
(-52.0392 0 0)
(-52.0392 0 0)
(-52.0392 0 0)
(-52.0392 0 0)
(-52.0392 0 0)
(-52.0392 0 0)
(-52.0392 0 0)
(-52.0392 0 0)
(-52.0392 0 0)
(-52.0392 0 0)
(-52.0392 0 0)
(-52.0392 0 0)
(-52.0392 0 0)
(-52.0392 0 0)
(-52.0392 0 0)
(-52.0392 0 0)
(-52.0392 0 0)
(-52.0392 0 0)
(-52.0392 0 0)
(-52.0392 0 0)
(-52.0392 0 0)
(-52.0392 0 0)
(-52.0392 0 0)
(-1.75549 -59.3539 -1.12635e-22)
(-1.75572 0 9.22344e-23)
(-1.75594 0 0)
(-1.75614 0 0)
(-1.75633 0 0)
(-1.7565 0 0)
(-1.75666 0 0)
(-1.7568 0 -2.8461e-20)
(-1.75693 0 2.33022e-20)
(-1.75706 0 0)
(-1.75717 0 -6.24764e-20)
(-1.75728 0 5.11488e-20)
(-1.75737 0 -4.18747e-20)
(-1.75746 0 3.42816e-20)
(-1.75755 0 5.61291e-20)
(-1.75761 0 -4.59515e-20)
(-1.7577 0 0)
(-1.75776 0 6.15896e-20)
(-1.75781 0 5.0419e-20)
(-1.75787 0 -8.25491e-20)
(-1.75792 0 -6.75758e-20)
(-1.75797 0 5.53182e-20)
(-1.75801 0 0)
(-1.75805 0 7.4139e-20)
(-1.75785 0 -9.34192e-20)
(-1.75765 0 -2.17534e-19)
(-1.75738 0 5.06496e-19)
(-1.75703 0 -2.94775e-19)
(-1.75657 0 0)
(-1.75597 0 0)
(-1.75524 0 0)
(-1.7541 0 5.39755e-19)
(-1.7528 0 -1.2544e-18)
(-1.75114 0 1.45685e-18)
(-1.75029 0 -1.69474e-18)
(-1.74912 0 9.84543e-19)
(-1.74751 0 -5.71882e-19)
(-1.74579 0 0)
(-1.74373 0 0)
(-1.74155 0 8.94199e-19)
(-1.73868 0 0)
(-1.73564 0 0)
(-1.73212 0 -6.938e-19)
(-1.728 0 8.02186e-19)
(-1.72315 0 0)
(-1.71834 0 0)
(-1.71208 0 0)
(-1.70583 0 0)
(-118.708 0.43888 0)
(-118.713 -5.70069e-17 0)
(-118.719 5.70102e-17 0)
(-118.725 -5.70131e-17 0)
(-118.731 5.70158e-17 0)
(-118.736 -5.7018e-17 0)
(-118.742 0 0)
(-118.748 0 0)
(-118.754 5.70269e-17 0)
(-118.759 -1.14061e-16 0)
(-118.765 5.70334e-17 0)
(-118.771 -5.70306e-17 0)
(-118.776 0 0)
(-118.782 -5.70415e-17 0)
(-118.788 5.70442e-17 0)
(-118.794 0 0)
(-118.799 0 0)
(-118.805 5.70525e-17 0)
(-118.811 -5.70552e-17 0)
(-118.816 -5.70525e-17 0)
(-118.822 5.70609e-17 0)
(-118.828 0 0)
(-118.834 -5.70663e-17 0)
(-118.839 0 0)
(-118.845 0 0)
(-118.85 0 0)
(-118.856 0 0)
(-118.862 0 0)
(-118.868 -5.70773e-17 0)
(-118.874 5.70855e-17 0)
(-118.879 -5.70882e-17 0)
(-118.885 5.70909e-17 0)
(-118.891 -5.70938e-17 0)
(-118.897 0 0)
(-118.902 0 0)
(-118.908 0 0)
(-118.914 -5.71047e-17 0)
(-118.92 5.71022e-17 0)
(-118.925 0 0)
(-118.931 0 0)
(-118.937 0 0)
(-118.942 -5.7113e-17 0)
(-118.948 5.71212e-17 0)
(-118.954 -5.71239e-17 0)
(-118.96 5.71268e-17 0)
(-118.965 -5.71296e-17 0)
(-118.971 0 0)
(-118.977 -5.7135e-17 0)
(-118.982 5.71377e-17 0)
(-118.988 -5.71406e-17 0)
(-118.994 5.71379e-17 0)
(-119 -5.71461e-17 0)
(-119.005 0 0)
(-119.011 0 0)
(-119.017 0 0)
(-119.022 0 0)
(-119.028 0 0)
(-119.034 0 0)
(-119.04 0 0)
(-119.045 0 0)
(-119.051 -5.71707e-17 0)
(-119.057 5.71737e-17 0)
(-119.063 -5.71764e-17 0)
(-119.069 5.71737e-17 0)
(-119.074 -5.71818e-17 0)
(-119.08 5.71846e-17 0)
(-119.086 -5.71875e-17 0)
(-119.092 0 0)
(-119.097 0 0)
(-119.103 0 0)
(-119.109 -5.71984e-17 0)
(-119.114 0 0)
(-119.12 0 0)
(-119.126 5.72068e-17 0)
(-119.132 -1.14419e-16 0)
(-119.137 5.72122e-17 0)
(-119.143 -5.72149e-17 0)
(-119.149 5.72122e-17 0)
(-119.155 5.72206e-17 0)
(-119.161 -5.72233e-17 0)
(-119.166 -5.72261e-17 0)
(-119.172 0 0)
(-119.178 5.72315e-17 0)
(-119.183 -5.72342e-17 0)
(-119.189 5.7237e-17 0)
(-119.195 -5.72345e-17 0)
(-119.201 0 0)
(-119.206 0 0)
(-119.212 0 0)
(-119.218 -5.72508e-17 0)
(-119.224 5.72483e-17 0)
(-119.23 -5.72565e-17 0)
(-119.235 5.72592e-17 0)
(-119.241 -5.72619e-17 0)
(-119.247 5.72592e-17 0)
(-119.252 -5.72455e-17 0)
(-119.258 0 0)
(-118.874 0 0)
(-118.05 0 0)
(-117.12 0 0)
(-116.07 0 0)
(-114.888 0 0)
(-113.561 0 0)
(-112.075 -2.87322e-17 0)
(-110.416 2.46837e-17 0)
(-108.571 0 0)
(-106.528 1.81086e-17 0)
(-104.273 0 0)
(-101.798 0 0)
(-99.0947 2.23426e-17 0)
(-96.1597 -1.89059e-17 0)
(-92.9925 0 0)
(-89.5981 0 0)
(-85.9861 -1.12121e-17 0)
(-82.1721 9.34423e-18 0)
(-78.1772 -7.75217e-18 0)
(-74.0285 0 0)
(-69.7579 0 0)
(-65.4023 4.30092e-18 0)
(-61.0007 -3.49847e-18 0)
(-56.5946 0 0)
(-52.2258 0 0)
(-47.9345 0 0)
(-43.7586 0 0)
(-39.7319 -2.29894e-18 0)
(-35.8834 0 0)
(-32.2366 0 0)
(-28.8094 0 0)
(-25.6138 0 0)
(-22.6566 -1.32269e-18 0)
)
;
    }
    front
    {
        type            empty;
    }
    back
    {
        type            empty;
    }
}


// ************************************************************************* //
