/*--------------------------------*- C++ -*----------------------------------*\
  =========                 |
  \\      /  F ield         | OpenFOAM: The Open Source CFD Toolbox
   \\    /   O peration     | Website:  https://openfoam.org
    \\  /    A nd           | Version:  6
     \\/     M anipulation  |
\*---------------------------------------------------------------------------*/
FoamFile
{
    version     2.0;
    format      ascii;
    class       volScalarField;
    location    "0";
    object      yPlus;
}
// * * * * * * * * * * * * * * * * * * * * * * * * * * * * * * * * * * * * * //

dimensions      [0 0 0 0 0 0 0];

internalField   uniform 0;

boundaryField
{
    inlet
    {
        type            calculated;
        value           uniform 0;
    }
    outlet
    {
        type            calculated;
        value           uniform 0;
    }
    lowerWallStartup
    {
        type            symmetryPlane;
    }
    upperWallStartup
    {
        type            symmetryPlane;
    }
    upperWall
    {
        type            calculated;
        value           nonuniform List<scalar> 
218
(
6.2035
6.2035
6.2035
6.2035
6.2035
6.2035
6.2035
6.2035
6.2035
6.2035
6.2035
6.2035
6.2035
6.2035
6.2035
6.2035
6.2035
6.2035
6.2035
6.2035
6.2035
6.2035
6.2035
6.2035
6.2035
6.2035
6.2035
6.2035
6.2035
6.2035
6.2035
6.2035
6.2035
6.2035
6.2035
6.2035
6.2035
6.2035
6.2035
6.2035
6.2035
6.2035
6.2035
6.2035
6.2035
6.2035
6.2035
6.2035
6.2035
6.2035
6.2035
6.2035
6.2035
6.2035
6.2035
6.2035
6.2035
6.2035
6.2035
6.2035
6.2035
6.2035
6.2035
6.2035
6.2035
6.2035
6.2035
6.2035
6.2035
6.2035
6.2035
6.2035
6.2035
6.2035
6.2035
6.2035
6.2035
6.2035
6.2035
6.2035
6.2035
6.2035
6.2035
6.2035
6.2035
6.2035
6.2035
6.2035
6.2035
6.2035
6.2035
6.13969
6.07459
6.07459
6.07459
6.07459
6.07459
6.07459
6.07459
6.07459
6.07459
6.07459
6.07459
6.07459
6.07459
6.07459
6.07459
6.07459
6.00988
5.9438
5.9438
5.9438
5.9438
5.9438
5.9438
5.9438
5.9438
5.9438
5.9438
5.9438
5.9438
5.9438
5.9438
5.9438
5.9438
5.87813
5.81098
5.81098
5.81098
5.81098
5.81098
5.81098
5.81098
5.81098
5.81098
5.81098
5.81098
5.81098
5.81098
5.81098
5.81098
5.81098
5.74426
5.67597
5.67597
5.67597
5.67597
5.67597
5.67597
5.67597
5.67597
5.67597
5.67597
5.67597
5.67597
5.67597
5.67597
5.67597
5.67597
5.60812
5.53857
5.53857
5.53857
5.53857
5.53857
5.53857
5.53857
5.53857
5.53857
5.53857
5.53857
5.53857
5.53857
5.53857
5.53857
5.53857
5.46949
5.39858
5.39858
5.39858
5.39858
5.39858
5.39858
5.39858
5.39858
5.39858
5.39858
5.39858
5.39858
5.39858
5.39858
5.39858
5.39858
5.39858
5.39858
5.39858
5.32815
5.25576
5.25576
5.25576
5.25576
5.25576
5.25576
5.18385
5.10983
5.10983
5.03631
4.96048
4.96048
4.8852
4.80711
4.72989
4.57048
4.40615
4.23628
4.06013
3.87681
3.6852
)
;
    }
    lowerWall
    {
        type            calculated;
        value           nonuniform List<scalar> 
266
(
6.2673
6.2673
6.2673
6.2673
6.2673
6.2673
6.2673
6.2673
6.2673
6.2673
6.2673
6.2673
6.2673
6.2673
6.2673
6.2673
6.2673
6.2673
6.2673
6.2673
6.2673
6.2673
6.2673
6.2673
6.2673
6.2673
6.2673
6.2673
6.2673
6.2673
6.2673
6.2673
6.2673
6.2673
6.2673
6.2673
6.2673
6.2673
6.2673
6.2673
6.2673
6.2673
6.2673
6.2673
6.2673
6.2673
6.2673
6.2673
6.2673
6.2673
6.2673
6.2673
6.2673
6.2673
6.2673
6.2673
6.2673
6.2673
6.2673
6.2673
6.2673
6.2673
6.2673
6.2673
6.2673
6.2673
6.2673
6.2673
6.2673
6.2673
6.2673
6.2673
6.2673
6.2673
6.2673
6.2673
6.2673
6.2673
6.2673
6.2673
6.2673
6.2673
6.2673
6.2673
6.2673
6.2673
6.2673
6.2673
1.0264
85.7304
85.7264
85.7227
85.7194
85.7163
85.7133
85.7107
85.7083
85.706
85.704
85.7019
85.7002
85.6986
85.6969
85.6959
85.6943
85.6932
85.6922
85.6911
85.6901
85.6893
85.6886
85.6878
85.6914
85.6951
85.7001
85.7065
85.7149
85.726
85.7393
85.7601
85.7836
85.8138
85.8292
85.8503
85.8791
85.9099
85.9465
85.9851
86.0357
86.0888
86.1497
86.2204
86.3025
86.3831
86.4863
86.5876
4.07983
4.07973
4.07963
4.07953
4.07943
4.07933
4.07923
4.07913
4.07902
4.07893
4.07883
4.07873
4.07863
4.07853
4.07843
4.07833
4.07823
4.07813
4.07803
4.07793
4.07783
4.07773
4.07763
4.07753
4.07743
4.07733
4.07723
4.07713
4.07703
4.07693
4.07683
4.07673
4.07663
4.07653
4.07643
4.07633
4.07623
4.07612
4.07603
4.07593
4.07583
4.07573
4.07563
4.07553
4.07543
4.07533
4.07523
4.07513
4.07503
4.07492
4.07483
4.07473
4.07463
4.07453
4.07443
4.07433
4.07423
4.07413
4.07403
4.07393
4.07383
4.07372
4.07363
4.07353
4.07343
4.07333
4.07322
4.07312
4.07303
4.07293
4.07283
4.07273
4.07263
4.07252
4.07243
4.07233
4.07223
4.07213
4.07202
4.07192
4.07183
4.07173
4.07163
4.07153
4.07143
4.07132
4.07123
4.07113
4.07103
4.07093
4.07082
4.07072
4.07062
4.07053
4.07043
4.07033
4.07023
4.07693
4.09139
4.10792
4.12681
4.1484
4.17306
4.20121
4.23331
4.26989
4.31157
4.35901
4.41295
4.47422
4.54378
4.62264
4.71195
4.81298
4.92749
5.05646
5.20192
5.36584
5.55042
5.75819
5.99202
6.25525
6.55179
6.88625
7.26418
7.69231
8.17881
8.73371
9.36926
10.1003
)
;
    }
    front
    {
        type            empty;
    }
    back
    {
        type            empty;
    }
}


// ************************************************************************* //
